+ 1.5 0 1 tcp 40 ------- 1 0.0 1.0 0 0
- 1.5 0 1 tcp 40 ------- 1 0.0 1.0 0 0
r 1.550064 0 1 tcp 40 ------- 1 0.0 1.0 0 0
+ 1.550064 1 0 ack 40 ------- 1 1.0 0.0 0 1
- 1.550064 1 0 ack 40 ------- 1 1.0 0.0 0 1
r 1.600128 1 0 ack 40 ------- 1 1.0 0.0 0 1
+ 1.600128 0 1 tcp 1540 ------- 1 0.0 1.0 1 2
- 1.600128 0 1 tcp 1540 ------- 1 0.0 1.0 1 2
+ 1.600128 0 1 tcp 1540 ------- 1 0.0 1.0 2 3
- 1.602592 0 1 tcp 1540 ------- 1 0.0 1.0 2 3
r 1.652592 0 1 tcp 1540 ------- 1 0.0 1.0 1 2
+ 1.652592 1 0 ack 40 ------- 1 1.0 0.0 1 4
- 1.652592 1 0 ack 40 ------- 1 1.0 0.0 1 4
r 1.655056 0 1 tcp 1540 ------- 1 0.0 1.0 2 3
+ 1.655056 1 0 ack 40 ------- 1 1.0 0.0 2 5
- 1.655056 1 0 ack 40 ------- 1 1.0 0.0 2 5
r 1.702656 1 0 ack 40 ------- 1 1.0 0.0 1 4
+ 1.702656 0 1 tcp 1540 ------- 1 0.0 1.0 3 6
- 1.702656 0 1 tcp 1540 ------- 1 0.0 1.0 3 6
+ 1.702656 0 1 tcp 1540 ------- 1 0.0 1.0 4 7
r 1.70512 1 0 ack 40 ------- 1 1.0 0.0 2 5
+ 1.70512 0 1 tcp 1540 ------- 1 0.0 1.0 5 8
+ 1.70512 0 1 tcp 1540 ------- 1 0.0 1.0 6 9
- 1.70512 0 1 tcp 1540 ------- 1 0.0 1.0 4 7
- 1.707584 0 1 tcp 1540 ------- 1 0.0 1.0 5 8
- 1.710048 0 1 tcp 1540 ------- 1 0.0 1.0 6 9
r 1.75512 0 1 tcp 1540 ------- 1 0.0 1.0 3 6
+ 1.75512 1 0 ack 40 ------- 1 1.0 0.0 3 10
- 1.75512 1 0 ack 40 ------- 1 1.0 0.0 3 10
r 1.757584 0 1 tcp 1540 ------- 1 0.0 1.0 4 7
+ 1.757584 1 0 ack 40 ------- 1 1.0 0.0 4 11
- 1.757584 1 0 ack 40 ------- 1 1.0 0.0 4 11
r 1.760048 0 1 tcp 1540 ------- 1 0.0 1.0 5 8
+ 1.760048 1 0 ack 40 ------- 1 1.0 0.0 5 12
- 1.760048 1 0 ack 40 ------- 1 1.0 0.0 5 12
r 1.762512 0 1 tcp 1540 ------- 1 0.0 1.0 6 9
+ 1.762512 1 0 ack 40 ------- 1 1.0 0.0 6 13
- 1.762512 1 0 ack 40 ------- 1 1.0 0.0 6 13
r 1.805184 1 0 ack 40 ------- 1 1.0 0.0 3 10
+ 1.805184 0 1 tcp 1540 ------- 1 0.0 1.0 7 14
- 1.805184 0 1 tcp 1540 ------- 1 0.0 1.0 7 14
+ 1.805184 0 1 tcp 1540 ------- 1 0.0 1.0 8 15
r 1.807648 1 0 ack 40 ------- 1 1.0 0.0 4 11
+ 1.807648 0 1 tcp 1540 ------- 1 0.0 1.0 9 16
+ 1.807648 0 1 tcp 1540 ------- 1 0.0 1.0 10 17
- 1.807648 0 1 tcp 1540 ------- 1 0.0 1.0 8 15
r 1.810112 1 0 ack 40 ------- 1 1.0 0.0 5 12
+ 1.810112 0 1 tcp 1540 ------- 1 0.0 1.0 11 18
+ 1.810112 0 1 tcp 1540 ------- 1 0.0 1.0 12 19
- 1.810112 0 1 tcp 1540 ------- 1 0.0 1.0 9 16
r 1.812576 1 0 ack 40 ------- 1 1.0 0.0 6 13
+ 1.812576 0 1 tcp 1540 ------- 1 0.0 1.0 13 20
+ 1.812576 0 1 tcp 1540 ------- 1 0.0 1.0 14 21
- 1.812576 0 1 tcp 1540 ------- 1 0.0 1.0 10 17
- 1.81504 0 1 tcp 1540 ------- 1 0.0 1.0 11 18
- 1.817504 0 1 tcp 1540 ------- 1 0.0 1.0 12 19
- 1.819968 0 1 tcp 1540 ------- 1 0.0 1.0 13 20
- 1.822432 0 1 tcp 1540 ------- 1 0.0 1.0 14 21
r 1.857648 0 1 tcp 1540 ------- 1 0.0 1.0 7 14
+ 1.857648 1 0 ack 40 ------- 1 1.0 0.0 7 22
- 1.857648 1 0 ack 40 ------- 1 1.0 0.0 7 22
r 1.860112 0 1 tcp 1540 ------- 1 0.0 1.0 8 15
+ 1.860112 1 0 ack 40 ------- 1 1.0 0.0 8 23
- 1.860112 1 0 ack 40 ------- 1 1.0 0.0 8 23
r 1.862576 0 1 tcp 1540 ------- 1 0.0 1.0 9 16
+ 1.862576 1 0 ack 40 ------- 1 1.0 0.0 9 24
- 1.862576 1 0 ack 40 ------- 1 1.0 0.0 9 24
r 1.86504 0 1 tcp 1540 ------- 1 0.0 1.0 10 17
+ 1.86504 1 0 ack 40 ------- 1 1.0 0.0 10 25
- 1.86504 1 0 ack 40 ------- 1 1.0 0.0 10 25
r 1.867504 0 1 tcp 1540 ------- 1 0.0 1.0 11 18
+ 1.867504 1 0 ack 40 ------- 1 1.0 0.0 11 26
- 1.867504 1 0 ack 40 ------- 1 1.0 0.0 11 26
r 1.869968 0 1 tcp 1540 ------- 1 0.0 1.0 12 19
+ 1.869968 1 0 ack 40 ------- 1 1.0 0.0 12 27
- 1.869968 1 0 ack 40 ------- 1 1.0 0.0 12 27
r 1.872432 0 1 tcp 1540 ------- 1 0.0 1.0 13 20
+ 1.872432 1 0 ack 40 ------- 1 1.0 0.0 13 28
- 1.872432 1 0 ack 40 ------- 1 1.0 0.0 13 28
r 1.874896 0 1 tcp 1540 ------- 1 0.0 1.0 14 21
+ 1.874896 1 0 ack 40 ------- 1 1.0 0.0 14 29
- 1.874896 1 0 ack 40 ------- 1 1.0 0.0 14 29
r 1.907712 1 0 ack 40 ------- 1 1.0 0.0 7 22
+ 1.907712 0 1 tcp 1540 ------- 1 0.0 1.0 15 30
- 1.907712 0 1 tcp 1540 ------- 1 0.0 1.0 15 30
+ 1.907712 0 1 tcp 1540 ------- 1 0.0 1.0 16 31
r 1.910176 1 0 ack 40 ------- 1 1.0 0.0 8 23
+ 1.910176 0 1 tcp 1540 ------- 1 0.0 1.0 17 32
+ 1.910176 0 1 tcp 1540 ------- 1 0.0 1.0 18 33
- 1.910176 0 1 tcp 1540 ------- 1 0.0 1.0 16 31
r 1.91264 1 0 ack 40 ------- 1 1.0 0.0 9 24
+ 1.91264 0 1 tcp 1540 ------- 1 0.0 1.0 19 34
+ 1.91264 0 1 tcp 1540 ------- 1 0.0 1.0 20 35
- 1.91264 0 1 tcp 1540 ------- 1 0.0 1.0 17 32
r 1.915104 1 0 ack 40 ------- 1 1.0 0.0 10 25
+ 1.915104 0 1 tcp 1540 ------- 1 0.0 1.0 21 36
+ 1.915104 0 1 tcp 1540 ------- 1 0.0 1.0 22 37
- 1.915104 0 1 tcp 1540 ------- 1 0.0 1.0 18 33
r 1.917568 1 0 ack 40 ------- 1 1.0 0.0 11 26
+ 1.917568 0 1 tcp 1540 ------- 1 0.0 1.0 23 38
+ 1.917568 0 1 tcp 1540 ------- 1 0.0 1.0 24 39
- 1.917568 0 1 tcp 1540 ------- 1 0.0 1.0 19 34
r 1.920032 1 0 ack 40 ------- 1 1.0 0.0 12 27
+ 1.920032 0 1 tcp 1540 ------- 1 0.0 1.0 25 40
+ 1.920032 0 1 tcp 1540 ------- 1 0.0 1.0 26 41
- 1.920032 0 1 tcp 1540 ------- 1 0.0 1.0 20 35
r 1.922496 1 0 ack 40 ------- 1 1.0 0.0 13 28
+ 1.922496 0 1 tcp 1540 ------- 1 0.0 1.0 27 42
+ 1.922496 0 1 tcp 1540 ------- 1 0.0 1.0 28 43
- 1.922496 0 1 tcp 1540 ------- 1 0.0 1.0 21 36
r 1.92496 1 0 ack 40 ------- 1 1.0 0.0 14 29
+ 1.92496 0 1 tcp 1540 ------- 1 0.0 1.0 29 44
+ 1.92496 0 1 tcp 1540 ------- 1 0.0 1.0 30 45
- 1.92496 0 1 tcp 1540 ------- 1 0.0 1.0 22 37
- 1.927424 0 1 tcp 1540 ------- 1 0.0 1.0 23 38
- 1.929888 0 1 tcp 1540 ------- 1 0.0 1.0 24 39
- 1.932352 0 1 tcp 1540 ------- 1 0.0 1.0 25 40
- 1.934816 0 1 tcp 1540 ------- 1 0.0 1.0 26 41
- 1.93728 0 1 tcp 1540 ------- 1 0.0 1.0 27 42
- 1.939744 0 1 tcp 1540 ------- 1 0.0 1.0 28 43
- 1.942208 0 1 tcp 1540 ------- 1 0.0 1.0 29 44
- 1.944672 0 1 tcp 1540 ------- 1 0.0 1.0 30 45
r 1.960176 0 1 tcp 1540 ------- 1 0.0 1.0 15 30
+ 1.960176 1 0 ack 40 ------- 1 1.0 0.0 15 46
- 1.960176 1 0 ack 40 ------- 1 1.0 0.0 15 46
r 1.96264 0 1 tcp 1540 ------- 1 0.0 1.0 16 31
+ 1.96264 1 0 ack 40 ------- 1 1.0 0.0 16 47
- 1.96264 1 0 ack 40 ------- 1 1.0 0.0 16 47
r 1.965104 0 1 tcp 1540 ------- 1 0.0 1.0 17 32
+ 1.965104 1 0 ack 40 ------- 1 1.0 0.0 17 48
- 1.965104 1 0 ack 40 ------- 1 1.0 0.0 17 48
r 1.967568 0 1 tcp 1540 ------- 1 0.0 1.0 18 33
+ 1.967568 1 0 ack 40 ------- 1 1.0 0.0 18 49
- 1.967568 1 0 ack 40 ------- 1 1.0 0.0 18 49
r 1.970032 0 1 tcp 1540 ------- 1 0.0 1.0 19 34
+ 1.970032 1 0 ack 40 ------- 1 1.0 0.0 19 50
- 1.970032 1 0 ack 40 ------- 1 1.0 0.0 19 50
r 1.972496 0 1 tcp 1540 ------- 1 0.0 1.0 20 35
+ 1.972496 1 0 ack 40 ------- 1 1.0 0.0 20 51
- 1.972496 1 0 ack 40 ------- 1 1.0 0.0 20 51
r 1.97496 0 1 tcp 1540 ------- 1 0.0 1.0 21 36
+ 1.97496 1 0 ack 40 ------- 1 1.0 0.0 21 52
- 1.97496 1 0 ack 40 ------- 1 1.0 0.0 21 52
r 1.977424 0 1 tcp 1540 ------- 1 0.0 1.0 22 37
+ 1.977424 1 0 ack 40 ------- 1 1.0 0.0 22 53
- 1.977424 1 0 ack 40 ------- 1 1.0 0.0 22 53
r 1.979888 0 1 tcp 1540 ------- 1 0.0 1.0 23 38
+ 1.979888 1 0 ack 40 ------- 1 1.0 0.0 23 54
- 1.979888 1 0 ack 40 ------- 1 1.0 0.0 23 54
r 1.982352 0 1 tcp 1540 ------- 1 0.0 1.0 24 39
+ 1.982352 1 0 ack 40 ------- 1 1.0 0.0 24 55
- 1.982352 1 0 ack 40 ------- 1 1.0 0.0 24 55
r 1.984816 0 1 tcp 1540 ------- 1 0.0 1.0 25 40
+ 1.984816 1 0 ack 40 ------- 1 1.0 0.0 25 56
- 1.984816 1 0 ack 40 ------- 1 1.0 0.0 25 56
r 1.98728 0 1 tcp 1540 ------- 1 0.0 1.0 26 41
+ 1.98728 1 0 ack 40 ------- 1 1.0 0.0 26 57
- 1.98728 1 0 ack 40 ------- 1 1.0 0.0 26 57
r 1.989744 0 1 tcp 1540 ------- 1 0.0 1.0 27 42
+ 1.989744 1 0 ack 40 ------- 1 1.0 0.0 27 58
- 1.989744 1 0 ack 40 ------- 1 1.0 0.0 27 58
r 1.992208 0 1 tcp 1540 ------- 1 0.0 1.0 28 43
+ 1.992208 1 0 ack 40 ------- 1 1.0 0.0 28 59
- 1.992208 1 0 ack 40 ------- 1 1.0 0.0 28 59
r 1.994672 0 1 tcp 1540 ------- 1 0.0 1.0 29 44
+ 1.994672 1 0 ack 40 ------- 1 1.0 0.0 29 60
- 1.994672 1 0 ack 40 ------- 1 1.0 0.0 29 60
r 1.997136 0 1 tcp 1540 ------- 1 0.0 1.0 30 45
+ 1.997136 1 0 ack 40 ------- 1 1.0 0.0 30 61
- 1.997136 1 0 ack 40 ------- 1 1.0 0.0 30 61
r 2.01024 1 0 ack 40 ------- 1 1.0 0.0 15 46
+ 2.01024 0 1 tcp 1540 ------- 1 0.0 1.0 31 62
- 2.01024 0 1 tcp 1540 ------- 1 0.0 1.0 31 62
+ 2.01024 0 1 tcp 1540 ------- 1 0.0 1.0 32 63
r 2.012704 1 0 ack 40 ------- 1 1.0 0.0 16 47
+ 2.012704 0 1 tcp 1540 ------- 1 0.0 1.0 33 64
+ 2.012704 0 1 tcp 1540 ------- 1 0.0 1.0 34 65
- 2.012704 0 1 tcp 1540 ------- 1 0.0 1.0 32 63
- 2.015168 0 1 tcp 1540 ------- 1 0.0 1.0 33 64
r 2.015168 1 0 ack 40 ------- 1 1.0 0.0 17 48
+ 2.015168 0 1 tcp 1540 ------- 1 0.0 1.0 35 66
+ 2.015168 0 1 tcp 1540 ------- 1 0.0 1.0 36 67
- 2.017632 0 1 tcp 1540 ------- 1 0.0 1.0 34 65
r 2.017632 1 0 ack 40 ------- 1 1.0 0.0 18 49
+ 2.017632 0 1 tcp 1540 ------- 1 0.0 1.0 37 68
+ 2.017632 0 1 tcp 1540 ------- 1 0.0 1.0 38 69
- 2.020096 0 1 tcp 1540 ------- 1 0.0 1.0 35 66
r 2.020096 1 0 ack 40 ------- 1 1.0 0.0 19 50
+ 2.020096 0 1 tcp 1540 ------- 1 0.0 1.0 39 70
- 2.02256 0 1 tcp 1540 ------- 1 0.0 1.0 36 67
r 2.02256 1 0 ack 40 ------- 1 1.0 0.0 20 51
+ 2.02256 0 1 tcp 1540 ------- 1 0.0 1.0 40 71
- 2.025024 0 1 tcp 1540 ------- 1 0.0 1.0 37 68
r 2.025024 1 0 ack 40 ------- 1 1.0 0.0 21 52
+ 2.025024 0 1 tcp 1540 ------- 1 0.0 1.0 41 72
- 2.027488 0 1 tcp 1540 ------- 1 0.0 1.0 38 69
r 2.027488 1 0 ack 40 ------- 1 1.0 0.0 22 53
+ 2.027488 0 1 tcp 1540 ------- 1 0.0 1.0 42 73
- 2.029952 0 1 tcp 1540 ------- 1 0.0 1.0 39 70
r 2.029952 1 0 ack 40 ------- 1 1.0 0.0 23 54
+ 2.029952 0 1 tcp 1540 ------- 1 0.0 1.0 43 74
- 2.032416 0 1 tcp 1540 ------- 1 0.0 1.0 40 71
r 2.032416 1 0 ack 40 ------- 1 1.0 0.0 24 55
+ 2.032416 0 1 tcp 1540 ------- 1 0.0 1.0 44 75
- 2.03488 0 1 tcp 1540 ------- 1 0.0 1.0 41 72
r 2.03488 1 0 ack 40 ------- 1 1.0 0.0 25 56
+ 2.03488 0 1 tcp 1540 ------- 1 0.0 1.0 45 76
- 2.037344 0 1 tcp 1540 ------- 1 0.0 1.0 42 73
r 2.037344 1 0 ack 40 ------- 1 1.0 0.0 26 57
+ 2.037344 0 1 tcp 1540 ------- 1 0.0 1.0 46 77
- 2.039808 0 1 tcp 1540 ------- 1 0.0 1.0 43 74
r 2.039808 1 0 ack 40 ------- 1 1.0 0.0 27 58
+ 2.039808 0 1 tcp 1540 ------- 1 0.0 1.0 47 78
- 2.042272 0 1 tcp 1540 ------- 1 0.0 1.0 44 75
r 2.042272 1 0 ack 40 ------- 1 1.0 0.0 28 59
+ 2.042272 0 1 tcp 1540 ------- 1 0.0 1.0 48 79
- 2.044736 0 1 tcp 1540 ------- 1 0.0 1.0 45 76
r 2.044736 1 0 ack 40 ------- 1 1.0 0.0 29 60
+ 2.044736 0 1 tcp 1540 ------- 1 0.0 1.0 49 80
- 2.0472 0 1 tcp 1540 ------- 1 0.0 1.0 46 77
r 2.0472 1 0 ack 40 ------- 1 1.0 0.0 30 61
+ 2.0472 0 1 tcp 1540 ------- 1 0.0 1.0 50 81
- 2.049664 0 1 tcp 1540 ------- 1 0.0 1.0 47 78
- 2.052128 0 1 tcp 1540 ------- 1 0.0 1.0 48 79
- 2.054592 0 1 tcp 1540 ------- 1 0.0 1.0 49 80
- 2.057056 0 1 tcp 1540 ------- 1 0.0 1.0 50 81
r 2.062704 0 1 tcp 1540 ------- 1 0.0 1.0 31 62
+ 2.062704 1 0 ack 40 ------- 1 1.0 0.0 31 82
- 2.062704 1 0 ack 40 ------- 1 1.0 0.0 31 82
r 2.065168 0 1 tcp 1540 ------- 1 0.0 1.0 32 63
+ 2.065168 1 0 ack 40 ------- 1 1.0 0.0 32 83
- 2.065168 1 0 ack 40 ------- 1 1.0 0.0 32 83
r 2.067632 0 1 tcp 1540 ------- 1 0.0 1.0 33 64
+ 2.067632 1 0 ack 40 ------- 1 1.0 0.0 33 84
- 2.067632 1 0 ack 40 ------- 1 1.0 0.0 33 84
r 2.070096 0 1 tcp 1540 ------- 1 0.0 1.0 34 65
+ 2.070096 1 0 ack 40 ------- 1 1.0 0.0 34 85
- 2.070096 1 0 ack 40 ------- 1 1.0 0.0 34 85
r 2.07256 0 1 tcp 1540 ------- 1 0.0 1.0 35 66
+ 2.07256 1 0 ack 40 ------- 1 1.0 0.0 35 86
- 2.07256 1 0 ack 40 ------- 1 1.0 0.0 35 86
r 2.075024 0 1 tcp 1540 ------- 1 0.0 1.0 36 67
+ 2.075024 1 0 ack 40 ------- 1 1.0 0.0 36 87
- 2.075024 1 0 ack 40 ------- 1 1.0 0.0 36 87
r 2.077488 0 1 tcp 1540 ------- 1 0.0 1.0 37 68
+ 2.077488 1 0 ack 40 ------- 1 1.0 0.0 37 88
- 2.077488 1 0 ack 40 ------- 1 1.0 0.0 37 88
r 2.079952 0 1 tcp 1540 ------- 1 0.0 1.0 38 69
+ 2.079952 1 0 ack 40 ------- 1 1.0 0.0 38 89
- 2.079952 1 0 ack 40 ------- 1 1.0 0.0 38 89
r 2.082416 0 1 tcp 1540 ------- 1 0.0 1.0 39 70
+ 2.082416 1 0 ack 40 ------- 1 1.0 0.0 39 90
- 2.082416 1 0 ack 40 ------- 1 1.0 0.0 39 90
r 2.08488 0 1 tcp 1540 ------- 1 0.0 1.0 40 71
+ 2.08488 1 0 ack 40 ------- 1 1.0 0.0 40 91
- 2.08488 1 0 ack 40 ------- 1 1.0 0.0 40 91
r 2.087344 0 1 tcp 1540 ------- 1 0.0 1.0 41 72
+ 2.087344 1 0 ack 40 ------- 1 1.0 0.0 41 92
- 2.087344 1 0 ack 40 ------- 1 1.0 0.0 41 92
r 2.089808 0 1 tcp 1540 ------- 1 0.0 1.0 42 73
+ 2.089808 1 0 ack 40 ------- 1 1.0 0.0 42 93
- 2.089808 1 0 ack 40 ------- 1 1.0 0.0 42 93
r 2.092272 0 1 tcp 1540 ------- 1 0.0 1.0 43 74
+ 2.092272 1 0 ack 40 ------- 1 1.0 0.0 43 94
- 2.092272 1 0 ack 40 ------- 1 1.0 0.0 43 94
r 2.094736 0 1 tcp 1540 ------- 1 0.0 1.0 44 75
+ 2.094736 1 0 ack 40 ------- 1 1.0 0.0 44 95
- 2.094736 1 0 ack 40 ------- 1 1.0 0.0 44 95
r 2.0972 0 1 tcp 1540 ------- 1 0.0 1.0 45 76
+ 2.0972 1 0 ack 40 ------- 1 1.0 0.0 45 96
- 2.0972 1 0 ack 40 ------- 1 1.0 0.0 45 96
r 2.099664 0 1 tcp 1540 ------- 1 0.0 1.0 46 77
+ 2.099664 1 0 ack 40 ------- 1 1.0 0.0 46 97
- 2.099664 1 0 ack 40 ------- 1 1.0 0.0 46 97
r 2.102128 0 1 tcp 1540 ------- 1 0.0 1.0 47 78
+ 2.102128 1 0 ack 40 ------- 1 1.0 0.0 47 98
- 2.102128 1 0 ack 40 ------- 1 1.0 0.0 47 98
r 2.104592 0 1 tcp 1540 ------- 1 0.0 1.0 48 79
+ 2.104592 1 0 ack 40 ------- 1 1.0 0.0 48 99
- 2.104592 1 0 ack 40 ------- 1 1.0 0.0 48 99
r 2.107056 0 1 tcp 1540 ------- 1 0.0 1.0 49 80
+ 2.107056 1 0 ack 40 ------- 1 1.0 0.0 49 100
- 2.107056 1 0 ack 40 ------- 1 1.0 0.0 49 100
r 2.10952 0 1 tcp 1540 ------- 1 0.0 1.0 50 81
+ 2.10952 1 0 ack 40 ------- 1 1.0 0.0 50 101
- 2.10952 1 0 ack 40 ------- 1 1.0 0.0 50 101
r 2.112768 1 0 ack 40 ------- 1 1.0 0.0 31 82
+ 2.112768 0 1 tcp 1540 ------- 1 0.0 1.0 51 102
- 2.112768 0 1 tcp 1540 ------- 1 0.0 1.0 51 102
r 2.115232 1 0 ack 40 ------- 1 1.0 0.0 32 83
+ 2.115232 0 1 tcp 1540 ------- 1 0.0 1.0 52 103
- 2.115232 0 1 tcp 1540 ------- 1 0.0 1.0 52 103
r 2.117696 1 0 ack 40 ------- 1 1.0 0.0 33 84
+ 2.117696 0 1 tcp 1540 ------- 1 0.0 1.0 53 104
- 2.117696 0 1 tcp 1540 ------- 1 0.0 1.0 53 104
r 2.12016 1 0 ack 40 ------- 1 1.0 0.0 34 85
+ 2.12016 0 1 tcp 1540 ------- 1 0.0 1.0 54 105
- 2.12016 0 1 tcp 1540 ------- 1 0.0 1.0 54 105
r 2.122624 1 0 ack 40 ------- 1 1.0 0.0 35 86
+ 2.122624 0 1 tcp 1540 ------- 1 0.0 1.0 55 106
- 2.122624 0 1 tcp 1540 ------- 1 0.0 1.0 55 106
r 2.125088 1 0 ack 40 ------- 1 1.0 0.0 36 87
+ 2.125088 0 1 tcp 1540 ------- 1 0.0 1.0 56 107
- 2.125088 0 1 tcp 1540 ------- 1 0.0 1.0 56 107
r 2.127552 1 0 ack 40 ------- 1 1.0 0.0 37 88
+ 2.127552 0 1 tcp 1540 ------- 1 0.0 1.0 57 108
- 2.127552 0 1 tcp 1540 ------- 1 0.0 1.0 57 108
r 2.130016 1 0 ack 40 ------- 1 1.0 0.0 38 89
+ 2.130016 0 1 tcp 1540 ------- 1 0.0 1.0 58 109
- 2.130016 0 1 tcp 1540 ------- 1 0.0 1.0 58 109
r 2.13248 1 0 ack 40 ------- 1 1.0 0.0 39 90
+ 2.13248 0 1 tcp 1540 ------- 1 0.0 1.0 59 110
- 2.13248 0 1 tcp 1540 ------- 1 0.0 1.0 59 110
r 2.134944 1 0 ack 40 ------- 1 1.0 0.0 40 91
+ 2.134944 0 1 tcp 1540 ------- 1 0.0 1.0 60 111
- 2.134944 0 1 tcp 1540 ------- 1 0.0 1.0 60 111
r 2.137408 1 0 ack 40 ------- 1 1.0 0.0 41 92
+ 2.137408 0 1 tcp 1540 ------- 1 0.0 1.0 61 112
- 2.137408 0 1 tcp 1540 ------- 1 0.0 1.0 61 112
r 2.139872 1 0 ack 40 ------- 1 1.0 0.0 42 93
+ 2.139872 0 1 tcp 1540 ------- 1 0.0 1.0 62 113
- 2.139872 0 1 tcp 1540 ------- 1 0.0 1.0 62 113
r 2.142336 1 0 ack 40 ------- 1 1.0 0.0 43 94
+ 2.142336 0 1 tcp 1540 ------- 1 0.0 1.0 63 114
- 2.142336 0 1 tcp 1540 ------- 1 0.0 1.0 63 114
r 2.1448 1 0 ack 40 ------- 1 1.0 0.0 44 95
+ 2.1448 0 1 tcp 1540 ------- 1 0.0 1.0 64 115
- 2.1448 0 1 tcp 1540 ------- 1 0.0 1.0 64 115
r 2.147264 1 0 ack 40 ------- 1 1.0 0.0 45 96
+ 2.147264 0 1 tcp 1540 ------- 1 0.0 1.0 65 116
- 2.147264 0 1 tcp 1540 ------- 1 0.0 1.0 65 116
r 2.149728 1 0 ack 40 ------- 1 1.0 0.0 46 97
+ 2.149728 0 1 tcp 1540 ------- 1 0.0 1.0 66 117
- 2.149728 0 1 tcp 1540 ------- 1 0.0 1.0 66 117
r 2.152192 1 0 ack 40 ------- 1 1.0 0.0 47 98
+ 2.152192 0 1 tcp 1540 ------- 1 0.0 1.0 67 118
- 2.152192 0 1 tcp 1540 ------- 1 0.0 1.0 67 118
r 2.154656 1 0 ack 40 ------- 1 1.0 0.0 48 99
+ 2.154656 0 1 tcp 1540 ------- 1 0.0 1.0 68 119
- 2.154656 0 1 tcp 1540 ------- 1 0.0 1.0 68 119
r 2.15712 1 0 ack 40 ------- 1 1.0 0.0 49 100
+ 2.15712 0 1 tcp 1540 ------- 1 0.0 1.0 69 120
- 2.15712 0 1 tcp 1540 ------- 1 0.0 1.0 69 120
r 2.159584 1 0 ack 40 ------- 1 1.0 0.0 50 101
+ 2.159584 0 1 tcp 1540 ------- 1 0.0 1.0 70 121
- 2.159584 0 1 tcp 1540 ------- 1 0.0 1.0 70 121
r 2.165232 0 1 tcp 1540 ------- 1 0.0 1.0 51 102
+ 2.165232 1 0 ack 40 ------- 1 1.0 0.0 51 122
- 2.165232 1 0 ack 40 ------- 1 1.0 0.0 51 122
r 2.167696 0 1 tcp 1540 ------- 1 0.0 1.0 52 103
+ 2.167696 1 0 ack 40 ------- 1 1.0 0.0 52 123
- 2.167696 1 0 ack 40 ------- 1 1.0 0.0 52 123
r 2.17016 0 1 tcp 1540 ------- 1 0.0 1.0 53 104
+ 2.17016 1 0 ack 40 ------- 1 1.0 0.0 53 124
- 2.17016 1 0 ack 40 ------- 1 1.0 0.0 53 124
r 2.172624 0 1 tcp 1540 ------- 1 0.0 1.0 54 105
+ 2.172624 1 0 ack 40 ------- 1 1.0 0.0 54 125
- 2.172624 1 0 ack 40 ------- 1 1.0 0.0 54 125
r 2.175088 0 1 tcp 1540 ------- 1 0.0 1.0 55 106
+ 2.175088 1 0 ack 40 ------- 1 1.0 0.0 55 126
- 2.175088 1 0 ack 40 ------- 1 1.0 0.0 55 126
r 2.177552 0 1 tcp 1540 ------- 1 0.0 1.0 56 107
+ 2.177552 1 0 ack 40 ------- 1 1.0 0.0 56 127
- 2.177552 1 0 ack 40 ------- 1 1.0 0.0 56 127
r 2.180016 0 1 tcp 1540 ------- 1 0.0 1.0 57 108
+ 2.180016 1 0 ack 40 ------- 1 1.0 0.0 57 128
- 2.180016 1 0 ack 40 ------- 1 1.0 0.0 57 128
r 2.18248 0 1 tcp 1540 ------- 1 0.0 1.0 58 109
+ 2.18248 1 0 ack 40 ------- 1 1.0 0.0 58 129
- 2.18248 1 0 ack 40 ------- 1 1.0 0.0 58 129
r 2.184944 0 1 tcp 1540 ------- 1 0.0 1.0 59 110
+ 2.184944 1 0 ack 40 ------- 1 1.0 0.0 59 130
- 2.184944 1 0 ack 40 ------- 1 1.0 0.0 59 130
r 2.187408 0 1 tcp 1540 ------- 1 0.0 1.0 60 111
+ 2.187408 1 0 ack 40 ------- 1 1.0 0.0 60 131
- 2.187408 1 0 ack 40 ------- 1 1.0 0.0 60 131
r 2.189872 0 1 tcp 1540 ------- 1 0.0 1.0 61 112
+ 2.189872 1 0 ack 40 ------- 1 1.0 0.0 61 132
- 2.189872 1 0 ack 40 ------- 1 1.0 0.0 61 132
r 2.192336 0 1 tcp 1540 ------- 1 0.0 1.0 62 113
+ 2.192336 1 0 ack 40 ------- 1 1.0 0.0 62 133
- 2.192336 1 0 ack 40 ------- 1 1.0 0.0 62 133
r 2.1948 0 1 tcp 1540 ------- 1 0.0 1.0 63 114
+ 2.1948 1 0 ack 40 ------- 1 1.0 0.0 63 134
- 2.1948 1 0 ack 40 ------- 1 1.0 0.0 63 134
r 2.197264 0 1 tcp 1540 ------- 1 0.0 1.0 64 115
+ 2.197264 1 0 ack 40 ------- 1 1.0 0.0 64 135
- 2.197264 1 0 ack 40 ------- 1 1.0 0.0 64 135
r 2.199728 0 1 tcp 1540 ------- 1 0.0 1.0 65 116
+ 2.199728 1 0 ack 40 ------- 1 1.0 0.0 65 136
- 2.199728 1 0 ack 40 ------- 1 1.0 0.0 65 136
r 2.202192 0 1 tcp 1540 ------- 1 0.0 1.0 66 117
+ 2.202192 1 0 ack 40 ------- 1 1.0 0.0 66 137
- 2.202192 1 0 ack 40 ------- 1 1.0 0.0 66 137
r 2.204656 0 1 tcp 1540 ------- 1 0.0 1.0 67 118
+ 2.204656 1 0 ack 40 ------- 1 1.0 0.0 67 138
- 2.204656 1 0 ack 40 ------- 1 1.0 0.0 67 138
r 2.20712 0 1 tcp 1540 ------- 1 0.0 1.0 68 119
+ 2.20712 1 0 ack 40 ------- 1 1.0 0.0 68 139
- 2.20712 1 0 ack 40 ------- 1 1.0 0.0 68 139
r 2.209584 0 1 tcp 1540 ------- 1 0.0 1.0 69 120
+ 2.209584 1 0 ack 40 ------- 1 1.0 0.0 69 140
- 2.209584 1 0 ack 40 ------- 1 1.0 0.0 69 140
r 2.212048 0 1 tcp 1540 ------- 1 0.0 1.0 70 121
+ 2.212048 1 0 ack 40 ------- 1 1.0 0.0 70 141
- 2.212048 1 0 ack 40 ------- 1 1.0 0.0 70 141
r 2.215296 1 0 ack 40 ------- 1 1.0 0.0 51 122
+ 2.215296 0 1 tcp 1540 ------- 1 0.0 1.0 71 142
- 2.215296 0 1 tcp 1540 ------- 1 0.0 1.0 71 142
r 2.21776 1 0 ack 40 ------- 1 1.0 0.0 52 123
+ 2.21776 0 1 tcp 1540 ------- 1 0.0 1.0 72 143
- 2.21776 0 1 tcp 1540 ------- 1 0.0 1.0 72 143
r 2.220224 1 0 ack 40 ------- 1 1.0 0.0 53 124
+ 2.220224 0 1 tcp 1540 ------- 1 0.0 1.0 73 144
- 2.220224 0 1 tcp 1540 ------- 1 0.0 1.0 73 144
r 2.222688 1 0 ack 40 ------- 1 1.0 0.0 54 125
+ 2.222688 0 1 tcp 1540 ------- 1 0.0 1.0 74 145
- 2.222688 0 1 tcp 1540 ------- 1 0.0 1.0 74 145
r 2.225152 1 0 ack 40 ------- 1 1.0 0.0 55 126
+ 2.225152 0 1 tcp 1540 ------- 1 0.0 1.0 75 146
- 2.225152 0 1 tcp 1540 ------- 1 0.0 1.0 75 146
r 2.227616 1 0 ack 40 ------- 1 1.0 0.0 56 127
+ 2.227616 0 1 tcp 1540 ------- 1 0.0 1.0 76 147
- 2.227616 0 1 tcp 1540 ------- 1 0.0 1.0 76 147
r 2.23008 1 0 ack 40 ------- 1 1.0 0.0 57 128
+ 2.23008 0 1 tcp 1540 ------- 1 0.0 1.0 77 148
- 2.23008 0 1 tcp 1540 ------- 1 0.0 1.0 77 148
r 2.232544 1 0 ack 40 ------- 1 1.0 0.0 58 129
+ 2.232544 0 1 tcp 1540 ------- 1 0.0 1.0 78 149
- 2.232544 0 1 tcp 1540 ------- 1 0.0 1.0 78 149
r 2.235008 1 0 ack 40 ------- 1 1.0 0.0 59 130
+ 2.235008 0 1 tcp 1540 ------- 1 0.0 1.0 79 150
- 2.235008 0 1 tcp 1540 ------- 1 0.0 1.0 79 150
r 2.237472 1 0 ack 40 ------- 1 1.0 0.0 60 131
+ 2.237472 0 1 tcp 1540 ------- 1 0.0 1.0 80 151
- 2.237472 0 1 tcp 1540 ------- 1 0.0 1.0 80 151
r 2.239936 1 0 ack 40 ------- 1 1.0 0.0 61 132
+ 2.239936 0 1 tcp 1540 ------- 1 0.0 1.0 81 152
- 2.239936 0 1 tcp 1540 ------- 1 0.0 1.0 81 152
r 2.2424 1 0 ack 40 ------- 1 1.0 0.0 62 133
+ 2.2424 0 1 tcp 1540 ------- 1 0.0 1.0 82 153
- 2.2424 0 1 tcp 1540 ------- 1 0.0 1.0 82 153
r 2.244864 1 0 ack 40 ------- 1 1.0 0.0 63 134
+ 2.244864 0 1 tcp 1540 ------- 1 0.0 1.0 83 154
- 2.244864 0 1 tcp 1540 ------- 1 0.0 1.0 83 154
r 2.247328 1 0 ack 40 ------- 1 1.0 0.0 64 135
+ 2.247328 0 1 tcp 1540 ------- 1 0.0 1.0 84 155
- 2.247328 0 1 tcp 1540 ------- 1 0.0 1.0 84 155
r 2.249792 1 0 ack 40 ------- 1 1.0 0.0 65 136
+ 2.249792 0 1 tcp 1540 ------- 1 0.0 1.0 85 156
- 2.249792 0 1 tcp 1540 ------- 1 0.0 1.0 85 156
r 2.252256 1 0 ack 40 ------- 1 1.0 0.0 66 137
+ 2.252256 0 1 tcp 1540 ------- 1 0.0 1.0 86 157
- 2.252256 0 1 tcp 1540 ------- 1 0.0 1.0 86 157
r 2.25472 1 0 ack 40 ------- 1 1.0 0.0 67 138
+ 2.25472 0 1 tcp 1540 ------- 1 0.0 1.0 87 158
- 2.25472 0 1 tcp 1540 ------- 1 0.0 1.0 87 158
r 2.257184 1 0 ack 40 ------- 1 1.0 0.0 68 139
+ 2.257184 0 1 tcp 1540 ------- 1 0.0 1.0 88 159
- 2.257184 0 1 tcp 1540 ------- 1 0.0 1.0 88 159
r 2.259648 1 0 ack 40 ------- 1 1.0 0.0 69 140
+ 2.259648 0 1 tcp 1540 ------- 1 0.0 1.0 89 160
- 2.259648 0 1 tcp 1540 ------- 1 0.0 1.0 89 160
r 2.262112 1 0 ack 40 ------- 1 1.0 0.0 70 141
+ 2.262112 0 1 tcp 1540 ------- 1 0.0 1.0 90 161
- 2.262112 0 1 tcp 1540 ------- 1 0.0 1.0 90 161
r 2.26776 0 1 tcp 1540 ------- 1 0.0 1.0 71 142
+ 2.26776 1 0 ack 40 ------- 1 1.0 0.0 71 162
- 2.26776 1 0 ack 40 ------- 1 1.0 0.0 71 162
r 2.270224 0 1 tcp 1540 ------- 1 0.0 1.0 72 143
+ 2.270224 1 0 ack 40 ------- 1 1.0 0.0 72 163
- 2.270224 1 0 ack 40 ------- 1 1.0 0.0 72 163
r 2.272688 0 1 tcp 1540 ------- 1 0.0 1.0 73 144
+ 2.272688 1 0 ack 40 ------- 1 1.0 0.0 73 164
- 2.272688 1 0 ack 40 ------- 1 1.0 0.0 73 164
r 2.275152 0 1 tcp 1540 ------- 1 0.0 1.0 74 145
+ 2.275152 1 0 ack 40 ------- 1 1.0 0.0 74 165
- 2.275152 1 0 ack 40 ------- 1 1.0 0.0 74 165
r 2.277616 0 1 tcp 1540 ------- 1 0.0 1.0 75 146
+ 2.277616 1 0 ack 40 ------- 1 1.0 0.0 75 166
- 2.277616 1 0 ack 40 ------- 1 1.0 0.0 75 166
r 2.28008 0 1 tcp 1540 ------- 1 0.0 1.0 76 147
+ 2.28008 1 0 ack 40 ------- 1 1.0 0.0 76 167
- 2.28008 1 0 ack 40 ------- 1 1.0 0.0 76 167
r 2.282544 0 1 tcp 1540 ------- 1 0.0 1.0 77 148
+ 2.282544 1 0 ack 40 ------- 1 1.0 0.0 77 168
- 2.282544 1 0 ack 40 ------- 1 1.0 0.0 77 168
r 2.285008 0 1 tcp 1540 ------- 1 0.0 1.0 78 149
+ 2.285008 1 0 ack 40 ------- 1 1.0 0.0 78 169
- 2.285008 1 0 ack 40 ------- 1 1.0 0.0 78 169
r 2.287472 0 1 tcp 1540 ------- 1 0.0 1.0 79 150
+ 2.287472 1 0 ack 40 ------- 1 1.0 0.0 79 170
- 2.287472 1 0 ack 40 ------- 1 1.0 0.0 79 170
r 2.289936 0 1 tcp 1540 ------- 1 0.0 1.0 80 151
+ 2.289936 1 0 ack 40 ------- 1 1.0 0.0 80 171
- 2.289936 1 0 ack 40 ------- 1 1.0 0.0 80 171
r 2.2924 0 1 tcp 1540 ------- 1 0.0 1.0 81 152
+ 2.2924 1 0 ack 40 ------- 1 1.0 0.0 81 172
- 2.2924 1 0 ack 40 ------- 1 1.0 0.0 81 172
r 2.294864 0 1 tcp 1540 ------- 1 0.0 1.0 82 153
+ 2.294864 1 0 ack 40 ------- 1 1.0 0.0 82 173
- 2.294864 1 0 ack 40 ------- 1 1.0 0.0 82 173
r 2.297328 0 1 tcp 1540 ------- 1 0.0 1.0 83 154
+ 2.297328 1 0 ack 40 ------- 1 1.0 0.0 83 174
- 2.297328 1 0 ack 40 ------- 1 1.0 0.0 83 174
r 2.299792 0 1 tcp 1540 ------- 1 0.0 1.0 84 155
+ 2.299792 1 0 ack 40 ------- 1 1.0 0.0 84 175
- 2.299792 1 0 ack 40 ------- 1 1.0 0.0 84 175
r 2.302256 0 1 tcp 1540 ------- 1 0.0 1.0 85 156
+ 2.302256 1 0 ack 40 ------- 1 1.0 0.0 85 176
- 2.302256 1 0 ack 40 ------- 1 1.0 0.0 85 176
r 2.30472 0 1 tcp 1540 ------- 1 0.0 1.0 86 157
+ 2.30472 1 0 ack 40 ------- 1 1.0 0.0 86 177
- 2.30472 1 0 ack 40 ------- 1 1.0 0.0 86 177
r 2.307184 0 1 tcp 1540 ------- 1 0.0 1.0 87 158
+ 2.307184 1 0 ack 40 ------- 1 1.0 0.0 87 178
- 2.307184 1 0 ack 40 ------- 1 1.0 0.0 87 178
r 2.309648 0 1 tcp 1540 ------- 1 0.0 1.0 88 159
+ 2.309648 1 0 ack 40 ------- 1 1.0 0.0 88 179
- 2.309648 1 0 ack 40 ------- 1 1.0 0.0 88 179
r 2.312112 0 1 tcp 1540 ------- 1 0.0 1.0 89 160
+ 2.312112 1 0 ack 40 ------- 1 1.0 0.0 89 180
- 2.312112 1 0 ack 40 ------- 1 1.0 0.0 89 180
r 2.314576 0 1 tcp 1540 ------- 1 0.0 1.0 90 161
+ 2.314576 1 0 ack 40 ------- 1 1.0 0.0 90 181
- 2.314576 1 0 ack 40 ------- 1 1.0 0.0 90 181
r 2.317824 1 0 ack 40 ------- 1 1.0 0.0 71 162
+ 2.317824 0 1 tcp 1540 ------- 1 0.0 1.0 91 182
- 2.317824 0 1 tcp 1540 ------- 1 0.0 1.0 91 182
r 2.320288 1 0 ack 40 ------- 1 1.0 0.0 72 163
+ 2.320288 0 1 tcp 1540 ------- 1 0.0 1.0 92 183
- 2.320288 0 1 tcp 1540 ------- 1 0.0 1.0 92 183
r 2.322752 1 0 ack 40 ------- 1 1.0 0.0 73 164
+ 2.322752 0 1 tcp 1540 ------- 1 0.0 1.0 93 184
- 2.322752 0 1 tcp 1540 ------- 1 0.0 1.0 93 184
r 2.325216 1 0 ack 40 ------- 1 1.0 0.0 74 165
+ 2.325216 0 1 tcp 1540 ------- 1 0.0 1.0 94 185
- 2.325216 0 1 tcp 1540 ------- 1 0.0 1.0 94 185
r 2.32768 1 0 ack 40 ------- 1 1.0 0.0 75 166
+ 2.32768 0 1 tcp 1540 ------- 1 0.0 1.0 95 186
- 2.32768 0 1 tcp 1540 ------- 1 0.0 1.0 95 186
r 2.330144 1 0 ack 40 ------- 1 1.0 0.0 76 167
+ 2.330144 0 1 tcp 1540 ------- 1 0.0 1.0 96 187
- 2.330144 0 1 tcp 1540 ------- 1 0.0 1.0 96 187
r 2.332608 1 0 ack 40 ------- 1 1.0 0.0 77 168
+ 2.332608 0 1 tcp 1540 ------- 1 0.0 1.0 97 188
- 2.332608 0 1 tcp 1540 ------- 1 0.0 1.0 97 188
r 2.335072 1 0 ack 40 ------- 1 1.0 0.0 78 169
+ 2.335072 0 1 tcp 1540 ------- 1 0.0 1.0 98 189
- 2.335072 0 1 tcp 1540 ------- 1 0.0 1.0 98 189
r 2.337536 1 0 ack 40 ------- 1 1.0 0.0 79 170
+ 2.337536 0 1 tcp 1540 ------- 1 0.0 1.0 99 190
- 2.337536 0 1 tcp 1540 ------- 1 0.0 1.0 99 190
r 2.34 1 0 ack 40 ------- 1 1.0 0.0 80 171
+ 2.34 0 1 tcp 1540 ------- 1 0.0 1.0 100 191
- 2.34 0 1 tcp 1540 ------- 1 0.0 1.0 100 191
r 2.342464 1 0 ack 40 ------- 1 1.0 0.0 81 172
+ 2.342464 0 1 tcp 1540 ------- 1 0.0 1.0 101 192
- 2.342464 0 1 tcp 1540 ------- 1 0.0 1.0 101 192
r 2.344928 1 0 ack 40 ------- 1 1.0 0.0 82 173
+ 2.344928 0 1 tcp 1540 ------- 1 0.0 1.0 102 193
- 2.344928 0 1 tcp 1540 ------- 1 0.0 1.0 102 193
r 2.347392 1 0 ack 40 ------- 1 1.0 0.0 83 174
+ 2.347392 0 1 tcp 1540 ------- 1 0.0 1.0 103 194
- 2.347392 0 1 tcp 1540 ------- 1 0.0 1.0 103 194
r 2.349856 1 0 ack 40 ------- 1 1.0 0.0 84 175
+ 2.349856 0 1 tcp 1540 ------- 1 0.0 1.0 104 195
- 2.349856 0 1 tcp 1540 ------- 1 0.0 1.0 104 195
r 2.35232 1 0 ack 40 ------- 1 1.0 0.0 85 176
+ 2.35232 0 1 tcp 1540 ------- 1 0.0 1.0 105 196
- 2.35232 0 1 tcp 1540 ------- 1 0.0 1.0 105 196
r 2.354784 1 0 ack 40 ------- 1 1.0 0.0 86 177
+ 2.354784 0 1 tcp 1540 ------- 1 0.0 1.0 106 197
- 2.354784 0 1 tcp 1540 ------- 1 0.0 1.0 106 197
r 2.357248 1 0 ack 40 ------- 1 1.0 0.0 87 178
+ 2.357248 0 1 tcp 1540 ------- 1 0.0 1.0 107 198
- 2.357248 0 1 tcp 1540 ------- 1 0.0 1.0 107 198
r 2.359712 1 0 ack 40 ------- 1 1.0 0.0 88 179
+ 2.359712 0 1 tcp 1540 ------- 1 0.0 1.0 108 199
- 2.359712 0 1 tcp 1540 ------- 1 0.0 1.0 108 199
r 2.362176 1 0 ack 40 ------- 1 1.0 0.0 89 180
+ 2.362176 0 1 tcp 1540 ------- 1 0.0 1.0 109 200
- 2.362176 0 1 tcp 1540 ------- 1 0.0 1.0 109 200
r 2.36464 1 0 ack 40 ------- 1 1.0 0.0 90 181
+ 2.36464 0 1 tcp 1540 ------- 1 0.0 1.0 110 201
- 2.36464 0 1 tcp 1540 ------- 1 0.0 1.0 110 201
r 2.370288 0 1 tcp 1540 ------- 1 0.0 1.0 91 182
+ 2.370288 1 0 ack 40 ------- 1 1.0 0.0 91 202
- 2.370288 1 0 ack 40 ------- 1 1.0 0.0 91 202
r 2.372752 0 1 tcp 1540 ------- 1 0.0 1.0 92 183
+ 2.372752 1 0 ack 40 ------- 1 1.0 0.0 92 203
- 2.372752 1 0 ack 40 ------- 1 1.0 0.0 92 203
r 2.375216 0 1 tcp 1540 ------- 1 0.0 1.0 93 184
+ 2.375216 1 0 ack 40 ------- 1 1.0 0.0 93 204
- 2.375216 1 0 ack 40 ------- 1 1.0 0.0 93 204
r 2.37768 0 1 tcp 1540 ------- 1 0.0 1.0 94 185
+ 2.37768 1 0 ack 40 ------- 1 1.0 0.0 94 205
- 2.37768 1 0 ack 40 ------- 1 1.0 0.0 94 205
r 2.380144 0 1 tcp 1540 ------- 1 0.0 1.0 95 186
+ 2.380144 1 0 ack 40 ------- 1 1.0 0.0 95 206
- 2.380144 1 0 ack 40 ------- 1 1.0 0.0 95 206
r 2.382608 0 1 tcp 1540 ------- 1 0.0 1.0 96 187
+ 2.382608 1 0 ack 40 ------- 1 1.0 0.0 96 207
- 2.382608 1 0 ack 40 ------- 1 1.0 0.0 96 207
r 2.385072 0 1 tcp 1540 ------- 1 0.0 1.0 97 188
+ 2.385072 1 0 ack 40 ------- 1 1.0 0.0 97 208
- 2.385072 1 0 ack 40 ------- 1 1.0 0.0 97 208
r 2.387536 0 1 tcp 1540 ------- 1 0.0 1.0 98 189
+ 2.387536 1 0 ack 40 ------- 1 1.0 0.0 98 209
- 2.387536 1 0 ack 40 ------- 1 1.0 0.0 98 209
r 2.39 0 1 tcp 1540 ------- 1 0.0 1.0 99 190
+ 2.39 1 0 ack 40 ------- 1 1.0 0.0 99 210
- 2.39 1 0 ack 40 ------- 1 1.0 0.0 99 210
r 2.392464 0 1 tcp 1540 ------- 1 0.0 1.0 100 191
+ 2.392464 1 0 ack 40 ------- 1 1.0 0.0 100 211
- 2.392464 1 0 ack 40 ------- 1 1.0 0.0 100 211
r 2.394928 0 1 tcp 1540 ------- 1 0.0 1.0 101 192
+ 2.394928 1 0 ack 40 ------- 1 1.0 0.0 101 212
- 2.394928 1 0 ack 40 ------- 1 1.0 0.0 101 212
r 2.397392 0 1 tcp 1540 ------- 1 0.0 1.0 102 193
+ 2.397392 1 0 ack 40 ------- 1 1.0 0.0 102 213
- 2.397392 1 0 ack 40 ------- 1 1.0 0.0 102 213
r 2.399856 0 1 tcp 1540 ------- 1 0.0 1.0 103 194
+ 2.399856 1 0 ack 40 ------- 1 1.0 0.0 103 214
- 2.399856 1 0 ack 40 ------- 1 1.0 0.0 103 214
r 2.40232 0 1 tcp 1540 ------- 1 0.0 1.0 104 195
+ 2.40232 1 0 ack 40 ------- 1 1.0 0.0 104 215
- 2.40232 1 0 ack 40 ------- 1 1.0 0.0 104 215
r 2.404784 0 1 tcp 1540 ------- 1 0.0 1.0 105 196
+ 2.404784 1 0 ack 40 ------- 1 1.0 0.0 105 216
- 2.404784 1 0 ack 40 ------- 1 1.0 0.0 105 216
r 2.407248 0 1 tcp 1540 ------- 1 0.0 1.0 106 197
+ 2.407248 1 0 ack 40 ------- 1 1.0 0.0 106 217
- 2.407248 1 0 ack 40 ------- 1 1.0 0.0 106 217
r 2.409712 0 1 tcp 1540 ------- 1 0.0 1.0 107 198